name: mesh
version: 2.20.4
description: Private rolodex to remember people better
homepage: https://me.sh/
url:
    darwin_amd64: https://assets.me.sh/mesh-desktop/mac/Mesh-2.20.4-universal.dmg
    darwin_amd64_10: https://assets.me.sh/mesh-desktop/mac/Mesh-2.20.4-universal.dmg
    darwin_amd64_11: https://assets.me.sh/mesh-desktop/mac/Mesh-2.20.4-universal.dmg
    darwin_amd64_12: https://assets.me.sh/mesh-desktop/mac/Mesh-2.20.4-universal.dmg
    darwin_amd64_13: https://assets.me.sh/mesh-desktop/mac/Mesh-2.20.4-universal.dmg
    darwin_amd64_14: https://assets.me.sh/mesh-desktop/mac/Mesh-2.20.4-universal.dmg
    darwin_amd64_15: https://assets.me.sh/mesh-desktop/mac/Mesh-2.20.4-universal.dmg
    darwin_amd64_16: https://assets.me.sh/mesh-desktop/mac/Mesh-2.20.4-universal.dmg
    darwin_arm64: https://assets.me.sh/mesh-desktop/mac/Mesh-2.20.4-universal.dmg
    darwin_arm64_11: https://assets.me.sh/mesh-desktop/mac/Mesh-2.20.4-universal.dmg
    darwin_arm64_12: https://assets.me.sh/mesh-desktop/mac/Mesh-2.20.4-universal.dmg
    darwin_arm64_13: https://assets.me.sh/mesh-desktop/mac/Mesh-2.20.4-universal.dmg
    darwin_arm64_14: https://assets.me.sh/mesh-desktop/mac/Mesh-2.20.4-universal.dmg
    darwin_arm64_15: https://assets.me.sh/mesh-desktop/mac/Mesh-2.20.4-universal.dmg
    darwin_arm64_16: https://assets.me.sh/mesh-desktop/mac/Mesh-2.20.4-universal.dmg
sha256:
    darwin_amd64: 0bcabd3406f7533ee295455fcea3524eda052a7e3780aae2d551be8557d34c5e
    darwin_amd64_10: 0bcabd3406f7533ee295455fcea3524eda052a7e3780aae2d551be8557d34c5e
    darwin_amd64_11: 0bcabd3406f7533ee295455fcea3524eda052a7e3780aae2d551be8557d34c5e
    darwin_amd64_12: 0bcabd3406f7533ee295455fcea3524eda052a7e3780aae2d551be8557d34c5e
    darwin_amd64_13: 0bcabd3406f7533ee295455fcea3524eda052a7e3780aae2d551be8557d34c5e
    darwin_amd64_14: 0bcabd3406f7533ee295455fcea3524eda052a7e3780aae2d551be8557d34c5e
    darwin_amd64_15: 0bcabd3406f7533ee295455fcea3524eda052a7e3780aae2d551be8557d34c5e
    darwin_amd64_16: 0bcabd3406f7533ee295455fcea3524eda052a7e3780aae2d551be8557d34c5e
    darwin_arm64: 0bcabd3406f7533ee295455fcea3524eda052a7e3780aae2d551be8557d34c5e
    darwin_arm64_11: 0bcabd3406f7533ee295455fcea3524eda052a7e3780aae2d551be8557d34c5e
    darwin_arm64_12: 0bcabd3406f7533ee295455fcea3524eda052a7e3780aae2d551be8557d34c5e
    darwin_arm64_13: 0bcabd3406f7533ee295455fcea3524eda052a7e3780aae2d551be8557d34c5e
    darwin_arm64_14: 0bcabd3406f7533ee295455fcea3524eda052a7e3780aae2d551be8557d34c5e
    darwin_arm64_15: 0bcabd3406f7533ee295455fcea3524eda052a7e3780aae2d551be8557d34c5e
    darwin_arm64_16: 0bcabd3406f7533ee295455fcea3524eda052a7e3780aae2d551be8557d34c5e
sha512:
    darwin_amd64: ""
    darwin_amd64_10: ""
    darwin_amd64_11: ""
    darwin_amd64_12: ""
    darwin_amd64_13: ""
    darwin_amd64_14: ""
    darwin_amd64_15: ""
    darwin_amd64_16: ""
    darwin_arm64: ""
    darwin_arm64_11: ""
    darwin_arm64_12: ""
    darwin_arm64_13: ""
    darwin_arm64_14: ""
    darwin_arm64_15: ""
    darwin_arm64_16: ""
artifacts:
    app:
        - Mesh.app
source:
    url: https://assets.me.sh/mesh-desktop/mac/Mesh-2.20.4-universal.dmg
    sha256: 0bcabd3406f7533ee295455fcea3524eda052a7e3780aae2d551be8557d34c5e
