name: mesh
version: 2.20.2
description: Private rolodex to remember people better
homepage: https://me.sh/
url:
    darwin_amd64: https://assets.me.sh/mesh-desktop/mac/Mesh-2.20.2-universal.dmg
    darwin_amd64_10: https://assets.me.sh/mesh-desktop/mac/Mesh-2.20.2-universal.dmg
    darwin_amd64_11: https://assets.me.sh/mesh-desktop/mac/Mesh-2.20.2-universal.dmg
    darwin_amd64_12: https://assets.me.sh/mesh-desktop/mac/Mesh-2.20.2-universal.dmg
    darwin_amd64_13: https://assets.me.sh/mesh-desktop/mac/Mesh-2.20.2-universal.dmg
    darwin_amd64_14: https://assets.me.sh/mesh-desktop/mac/Mesh-2.20.2-universal.dmg
    darwin_amd64_15: https://assets.me.sh/mesh-desktop/mac/Mesh-2.20.2-universal.dmg
    darwin_arm64: https://assets.me.sh/mesh-desktop/mac/Mesh-2.20.2-universal.dmg
    darwin_arm64_11: https://assets.me.sh/mesh-desktop/mac/Mesh-2.20.2-universal.dmg
    darwin_arm64_12: https://assets.me.sh/mesh-desktop/mac/Mesh-2.20.2-universal.dmg
    darwin_arm64_13: https://assets.me.sh/mesh-desktop/mac/Mesh-2.20.2-universal.dmg
    darwin_arm64_14: https://assets.me.sh/mesh-desktop/mac/Mesh-2.20.2-universal.dmg
    darwin_arm64_15: https://assets.me.sh/mesh-desktop/mac/Mesh-2.20.2-universal.dmg
sha256:
    darwin_amd64: 8495fc7f6286176f05fc4e48381760230d41144ad0503ce8f77ecb1183874e99
    darwin_amd64_10: 8495fc7f6286176f05fc4e48381760230d41144ad0503ce8f77ecb1183874e99
    darwin_amd64_11: 8495fc7f6286176f05fc4e48381760230d41144ad0503ce8f77ecb1183874e99
    darwin_amd64_12: 8495fc7f6286176f05fc4e48381760230d41144ad0503ce8f77ecb1183874e99
    darwin_amd64_13: 8495fc7f6286176f05fc4e48381760230d41144ad0503ce8f77ecb1183874e99
    darwin_amd64_14: 8495fc7f6286176f05fc4e48381760230d41144ad0503ce8f77ecb1183874e99
    darwin_amd64_15: 8495fc7f6286176f05fc4e48381760230d41144ad0503ce8f77ecb1183874e99
    darwin_arm64: 8495fc7f6286176f05fc4e48381760230d41144ad0503ce8f77ecb1183874e99
    darwin_arm64_11: 8495fc7f6286176f05fc4e48381760230d41144ad0503ce8f77ecb1183874e99
    darwin_arm64_12: 8495fc7f6286176f05fc4e48381760230d41144ad0503ce8f77ecb1183874e99
    darwin_arm64_13: 8495fc7f6286176f05fc4e48381760230d41144ad0503ce8f77ecb1183874e99
    darwin_arm64_14: 8495fc7f6286176f05fc4e48381760230d41144ad0503ce8f77ecb1183874e99
    darwin_arm64_15: 8495fc7f6286176f05fc4e48381760230d41144ad0503ce8f77ecb1183874e99
sha512:
    darwin_amd64: ""
    darwin_amd64_10: ""
    darwin_amd64_11: ""
    darwin_amd64_12: ""
    darwin_amd64_13: ""
    darwin_amd64_14: ""
    darwin_amd64_15: ""
    darwin_arm64: ""
    darwin_arm64_11: ""
    darwin_arm64_12: ""
    darwin_arm64_13: ""
    darwin_arm64_14: ""
    darwin_arm64_15: ""
artifacts:
    app:
        - Mesh.app
source:
    url: https://assets.me.sh/mesh-desktop/mac/Mesh-2.20.2-universal.dmg
    sha256: 8495fc7f6286176f05fc4e48381760230d41144ad0503ce8f77ecb1183874e99
