name: mesh
version: 2.20.5
description: Private rolodex to remember people better
homepage: https://me.sh/
url:
    darwin_amd64: https://assets.me.sh/mesh-desktop/mac/Mesh-2.20.5-universal.dmg
    darwin_amd64_10: https://assets.me.sh/mesh-desktop/mac/Mesh-2.20.5-universal.dmg
    darwin_amd64_11: https://assets.me.sh/mesh-desktop/mac/Mesh-2.20.5-universal.dmg
    darwin_amd64_12: https://assets.me.sh/mesh-desktop/mac/Mesh-2.20.5-universal.dmg
    darwin_amd64_13: https://assets.me.sh/mesh-desktop/mac/Mesh-2.20.5-universal.dmg
    darwin_amd64_14: https://assets.me.sh/mesh-desktop/mac/Mesh-2.20.5-universal.dmg
    darwin_amd64_15: https://assets.me.sh/mesh-desktop/mac/Mesh-2.20.5-universal.dmg
    darwin_amd64_16: https://assets.me.sh/mesh-desktop/mac/Mesh-2.20.5-universal.dmg
    darwin_arm64: https://assets.me.sh/mesh-desktop/mac/Mesh-2.20.5-universal.dmg
    darwin_arm64_11: https://assets.me.sh/mesh-desktop/mac/Mesh-2.20.5-universal.dmg
    darwin_arm64_12: https://assets.me.sh/mesh-desktop/mac/Mesh-2.20.5-universal.dmg
    darwin_arm64_13: https://assets.me.sh/mesh-desktop/mac/Mesh-2.20.5-universal.dmg
    darwin_arm64_14: https://assets.me.sh/mesh-desktop/mac/Mesh-2.20.5-universal.dmg
    darwin_arm64_15: https://assets.me.sh/mesh-desktop/mac/Mesh-2.20.5-universal.dmg
    darwin_arm64_16: https://assets.me.sh/mesh-desktop/mac/Mesh-2.20.5-universal.dmg
sha256:
    darwin_amd64: 433603fcdee8fbbf0e713ef4f9dfb51deeb7be4630bc40f1c0d6fdcf7195777b
    darwin_amd64_10: 433603fcdee8fbbf0e713ef4f9dfb51deeb7be4630bc40f1c0d6fdcf7195777b
    darwin_amd64_11: 433603fcdee8fbbf0e713ef4f9dfb51deeb7be4630bc40f1c0d6fdcf7195777b
    darwin_amd64_12: 433603fcdee8fbbf0e713ef4f9dfb51deeb7be4630bc40f1c0d6fdcf7195777b
    darwin_amd64_13: 433603fcdee8fbbf0e713ef4f9dfb51deeb7be4630bc40f1c0d6fdcf7195777b
    darwin_amd64_14: 433603fcdee8fbbf0e713ef4f9dfb51deeb7be4630bc40f1c0d6fdcf7195777b
    darwin_amd64_15: 433603fcdee8fbbf0e713ef4f9dfb51deeb7be4630bc40f1c0d6fdcf7195777b
    darwin_amd64_16: 433603fcdee8fbbf0e713ef4f9dfb51deeb7be4630bc40f1c0d6fdcf7195777b
    darwin_arm64: 433603fcdee8fbbf0e713ef4f9dfb51deeb7be4630bc40f1c0d6fdcf7195777b
    darwin_arm64_11: 433603fcdee8fbbf0e713ef4f9dfb51deeb7be4630bc40f1c0d6fdcf7195777b
    darwin_arm64_12: 433603fcdee8fbbf0e713ef4f9dfb51deeb7be4630bc40f1c0d6fdcf7195777b
    darwin_arm64_13: 433603fcdee8fbbf0e713ef4f9dfb51deeb7be4630bc40f1c0d6fdcf7195777b
    darwin_arm64_14: 433603fcdee8fbbf0e713ef4f9dfb51deeb7be4630bc40f1c0d6fdcf7195777b
    darwin_arm64_15: 433603fcdee8fbbf0e713ef4f9dfb51deeb7be4630bc40f1c0d6fdcf7195777b
    darwin_arm64_16: 433603fcdee8fbbf0e713ef4f9dfb51deeb7be4630bc40f1c0d6fdcf7195777b
sha512:
    darwin_amd64: ""
    darwin_amd64_10: ""
    darwin_amd64_11: ""
    darwin_amd64_12: ""
    darwin_amd64_13: ""
    darwin_amd64_14: ""
    darwin_amd64_15: ""
    darwin_amd64_16: ""
    darwin_arm64: ""
    darwin_arm64_11: ""
    darwin_arm64_12: ""
    darwin_arm64_13: ""
    darwin_arm64_14: ""
    darwin_arm64_15: ""
    darwin_arm64_16: ""
artifacts:
    app:
        - Mesh.app
source:
    url: https://assets.me.sh/mesh-desktop/mac/Mesh-2.20.5-universal.dmg
    sha256: 433603fcdee8fbbf0e713ef4f9dfb51deeb7be4630bc40f1c0d6fdcf7195777b
