name: mesh
version: 2.20.3
description: Private rolodex to remember people better
homepage: https://me.sh/
url:
    darwin_amd64: https://assets.me.sh/mesh-desktop/mac/Mesh-2.20.3-universal.dmg
    darwin_amd64_10: https://assets.me.sh/mesh-desktop/mac/Mesh-2.20.3-universal.dmg
    darwin_amd64_11: https://assets.me.sh/mesh-desktop/mac/Mesh-2.20.3-universal.dmg
    darwin_amd64_12: https://assets.me.sh/mesh-desktop/mac/Mesh-2.20.3-universal.dmg
    darwin_amd64_13: https://assets.me.sh/mesh-desktop/mac/Mesh-2.20.3-universal.dmg
    darwin_amd64_14: https://assets.me.sh/mesh-desktop/mac/Mesh-2.20.3-universal.dmg
    darwin_amd64_15: https://assets.me.sh/mesh-desktop/mac/Mesh-2.20.3-universal.dmg
    darwin_arm64: https://assets.me.sh/mesh-desktop/mac/Mesh-2.20.3-universal.dmg
    darwin_arm64_11: https://assets.me.sh/mesh-desktop/mac/Mesh-2.20.3-universal.dmg
    darwin_arm64_12: https://assets.me.sh/mesh-desktop/mac/Mesh-2.20.3-universal.dmg
    darwin_arm64_13: https://assets.me.sh/mesh-desktop/mac/Mesh-2.20.3-universal.dmg
    darwin_arm64_14: https://assets.me.sh/mesh-desktop/mac/Mesh-2.20.3-universal.dmg
    darwin_arm64_15: https://assets.me.sh/mesh-desktop/mac/Mesh-2.20.3-universal.dmg
sha256:
    darwin_amd64: 26f311a418ad2ad61875ccdcc7c9b8d98760e1024460c1c34d192e05169644be
    darwin_amd64_10: 26f311a418ad2ad61875ccdcc7c9b8d98760e1024460c1c34d192e05169644be
    darwin_amd64_11: 26f311a418ad2ad61875ccdcc7c9b8d98760e1024460c1c34d192e05169644be
    darwin_amd64_12: 26f311a418ad2ad61875ccdcc7c9b8d98760e1024460c1c34d192e05169644be
    darwin_amd64_13: 26f311a418ad2ad61875ccdcc7c9b8d98760e1024460c1c34d192e05169644be
    darwin_amd64_14: 26f311a418ad2ad61875ccdcc7c9b8d98760e1024460c1c34d192e05169644be
    darwin_amd64_15: 26f311a418ad2ad61875ccdcc7c9b8d98760e1024460c1c34d192e05169644be
    darwin_arm64: 26f311a418ad2ad61875ccdcc7c9b8d98760e1024460c1c34d192e05169644be
    darwin_arm64_11: 26f311a418ad2ad61875ccdcc7c9b8d98760e1024460c1c34d192e05169644be
    darwin_arm64_12: 26f311a418ad2ad61875ccdcc7c9b8d98760e1024460c1c34d192e05169644be
    darwin_arm64_13: 26f311a418ad2ad61875ccdcc7c9b8d98760e1024460c1c34d192e05169644be
    darwin_arm64_14: 26f311a418ad2ad61875ccdcc7c9b8d98760e1024460c1c34d192e05169644be
    darwin_arm64_15: 26f311a418ad2ad61875ccdcc7c9b8d98760e1024460c1c34d192e05169644be
sha512:
    darwin_amd64: ""
    darwin_amd64_10: ""
    darwin_amd64_11: ""
    darwin_amd64_12: ""
    darwin_amd64_13: ""
    darwin_amd64_14: ""
    darwin_amd64_15: ""
    darwin_arm64: ""
    darwin_arm64_11: ""
    darwin_arm64_12: ""
    darwin_arm64_13: ""
    darwin_arm64_14: ""
    darwin_arm64_15: ""
artifacts:
    app:
        - Mesh.app
source:
    url: https://assets.me.sh/mesh-desktop/mac/Mesh-2.20.3-universal.dmg
    sha256: 26f311a418ad2ad61875ccdcc7c9b8d98760e1024460c1c34d192e05169644be
