name: mesh
version: 2.20.0
description: Private rolodex to remember people better
homepage: https://me.sh/
license: ""
url:
    darwin_amd64: https://assets.me.sh/mesh-desktop/mac/Mesh-2.20.0-universal.dmg
    darwin_amd64_10: https://assets.me.sh/mesh-desktop/mac/Mesh-2.20.0-universal.dmg
    darwin_amd64_11: https://assets.me.sh/mesh-desktop/mac/Mesh-2.20.0-universal.dmg
    darwin_amd64_12: https://assets.me.sh/mesh-desktop/mac/Mesh-2.20.0-universal.dmg
    darwin_amd64_13: https://assets.me.sh/mesh-desktop/mac/Mesh-2.20.0-universal.dmg
    darwin_amd64_14: https://assets.me.sh/mesh-desktop/mac/Mesh-2.20.0-universal.dmg
    darwin_amd64_15: https://assets.me.sh/mesh-desktop/mac/Mesh-2.20.0-universal.dmg
    darwin_amd64_16: https://assets.me.sh/mesh-desktop/mac/Mesh-2.20.0-universal.dmg
    darwin_arm64: https://assets.me.sh/mesh-desktop/mac/Mesh-2.20.0-universal.dmg
    darwin_arm64_11: https://assets.me.sh/mesh-desktop/mac/Mesh-2.20.0-universal.dmg
    darwin_arm64_12: https://assets.me.sh/mesh-desktop/mac/Mesh-2.20.0-universal.dmg
    darwin_arm64_13: https://assets.me.sh/mesh-desktop/mac/Mesh-2.20.0-universal.dmg
    darwin_arm64_14: https://assets.me.sh/mesh-desktop/mac/Mesh-2.20.0-universal.dmg
    darwin_arm64_15: https://assets.me.sh/mesh-desktop/mac/Mesh-2.20.0-universal.dmg
    darwin_arm64_16: https://assets.me.sh/mesh-desktop/mac/Mesh-2.20.0-universal.dmg
sha256:
    darwin_amd64: c634363be4fc4a8b2bac531e199c7e6dfc181b6bc457a541cc1033f61193901b
    darwin_amd64_10: c634363be4fc4a8b2bac531e199c7e6dfc181b6bc457a541cc1033f61193901b
    darwin_amd64_11: c634363be4fc4a8b2bac531e199c7e6dfc181b6bc457a541cc1033f61193901b
    darwin_amd64_12: c634363be4fc4a8b2bac531e199c7e6dfc181b6bc457a541cc1033f61193901b
    darwin_amd64_13: c634363be4fc4a8b2bac531e199c7e6dfc181b6bc457a541cc1033f61193901b
    darwin_amd64_14: c634363be4fc4a8b2bac531e199c7e6dfc181b6bc457a541cc1033f61193901b
    darwin_amd64_15: c634363be4fc4a8b2bac531e199c7e6dfc181b6bc457a541cc1033f61193901b
    darwin_amd64_16: c634363be4fc4a8b2bac531e199c7e6dfc181b6bc457a541cc1033f61193901b
    darwin_arm64: c634363be4fc4a8b2bac531e199c7e6dfc181b6bc457a541cc1033f61193901b
    darwin_arm64_11: c634363be4fc4a8b2bac531e199c7e6dfc181b6bc457a541cc1033f61193901b
    darwin_arm64_12: c634363be4fc4a8b2bac531e199c7e6dfc181b6bc457a541cc1033f61193901b
    darwin_arm64_13: c634363be4fc4a8b2bac531e199c7e6dfc181b6bc457a541cc1033f61193901b
    darwin_arm64_14: c634363be4fc4a8b2bac531e199c7e6dfc181b6bc457a541cc1033f61193901b
    darwin_arm64_15: c634363be4fc4a8b2bac531e199c7e6dfc181b6bc457a541cc1033f61193901b
    darwin_arm64_16: c634363be4fc4a8b2bac531e199c7e6dfc181b6bc457a541cc1033f61193901b
sha512:
    darwin_amd64: ""
    darwin_amd64_10: ""
    darwin_amd64_11: ""
    darwin_amd64_12: ""
    darwin_amd64_13: ""
    darwin_amd64_14: ""
    darwin_amd64_15: ""
    darwin_amd64_16: ""
    darwin_arm64: ""
    darwin_arm64_11: ""
    darwin_arm64_12: ""
    darwin_arm64_13: ""
    darwin_arm64_14: ""
    darwin_arm64_15: ""
    darwin_arm64_16: ""
artifacts:
    app:
        - Mesh.app
    pkg: []
    bin: []
source:
    url: https://assets.me.sh/mesh-desktop/mac/Mesh-2.20.0-universal.dmg
    sha256: c634363be4fc4a8b2bac531e199c7e6dfc181b6bc457a541cc1033f61193901b
    sha512: ""
