name: mesh
version: 2.20.1
description: Private rolodex to remember people better
homepage: https://me.sh/
url:
    darwin_amd64: https://assets.me.sh/mesh-desktop/mac/Mesh-2.20.1-universal.dmg
    darwin_amd64_10: https://assets.me.sh/mesh-desktop/mac/Mesh-2.20.1-universal.dmg
    darwin_amd64_11: https://assets.me.sh/mesh-desktop/mac/Mesh-2.20.1-universal.dmg
    darwin_amd64_12: https://assets.me.sh/mesh-desktop/mac/Mesh-2.20.1-universal.dmg
    darwin_amd64_13: https://assets.me.sh/mesh-desktop/mac/Mesh-2.20.1-universal.dmg
    darwin_amd64_14: https://assets.me.sh/mesh-desktop/mac/Mesh-2.20.1-universal.dmg
    darwin_amd64_15: https://assets.me.sh/mesh-desktop/mac/Mesh-2.20.1-universal.dmg
    darwin_amd64_16: https://assets.me.sh/mesh-desktop/mac/Mesh-2.20.1-universal.dmg
    darwin_arm64: https://assets.me.sh/mesh-desktop/mac/Mesh-2.20.1-universal.dmg
    darwin_arm64_11: https://assets.me.sh/mesh-desktop/mac/Mesh-2.20.1-universal.dmg
    darwin_arm64_12: https://assets.me.sh/mesh-desktop/mac/Mesh-2.20.1-universal.dmg
    darwin_arm64_13: https://assets.me.sh/mesh-desktop/mac/Mesh-2.20.1-universal.dmg
    darwin_arm64_14: https://assets.me.sh/mesh-desktop/mac/Mesh-2.20.1-universal.dmg
    darwin_arm64_15: https://assets.me.sh/mesh-desktop/mac/Mesh-2.20.1-universal.dmg
    darwin_arm64_16: https://assets.me.sh/mesh-desktop/mac/Mesh-2.20.1-universal.dmg
sha256:
    darwin_amd64: 66b00ae22df7c83db17969115d6f5f25d895a4faff161770e3f29c39df91117d
    darwin_amd64_10: 66b00ae22df7c83db17969115d6f5f25d895a4faff161770e3f29c39df91117d
    darwin_amd64_11: 66b00ae22df7c83db17969115d6f5f25d895a4faff161770e3f29c39df91117d
    darwin_amd64_12: 66b00ae22df7c83db17969115d6f5f25d895a4faff161770e3f29c39df91117d
    darwin_amd64_13: 66b00ae22df7c83db17969115d6f5f25d895a4faff161770e3f29c39df91117d
    darwin_amd64_14: 66b00ae22df7c83db17969115d6f5f25d895a4faff161770e3f29c39df91117d
    darwin_amd64_15: 66b00ae22df7c83db17969115d6f5f25d895a4faff161770e3f29c39df91117d
    darwin_amd64_16: 66b00ae22df7c83db17969115d6f5f25d895a4faff161770e3f29c39df91117d
    darwin_arm64: 66b00ae22df7c83db17969115d6f5f25d895a4faff161770e3f29c39df91117d
    darwin_arm64_11: 66b00ae22df7c83db17969115d6f5f25d895a4faff161770e3f29c39df91117d
    darwin_arm64_12: 66b00ae22df7c83db17969115d6f5f25d895a4faff161770e3f29c39df91117d
    darwin_arm64_13: 66b00ae22df7c83db17969115d6f5f25d895a4faff161770e3f29c39df91117d
    darwin_arm64_14: 66b00ae22df7c83db17969115d6f5f25d895a4faff161770e3f29c39df91117d
    darwin_arm64_15: 66b00ae22df7c83db17969115d6f5f25d895a4faff161770e3f29c39df91117d
    darwin_arm64_16: 66b00ae22df7c83db17969115d6f5f25d895a4faff161770e3f29c39df91117d
sha512:
    darwin_amd64: ""
    darwin_amd64_10: ""
    darwin_amd64_11: ""
    darwin_amd64_12: ""
    darwin_amd64_13: ""
    darwin_amd64_14: ""
    darwin_amd64_15: ""
    darwin_amd64_16: ""
    darwin_arm64: ""
    darwin_arm64_11: ""
    darwin_arm64_12: ""
    darwin_arm64_13: ""
    darwin_arm64_14: ""
    darwin_arm64_15: ""
    darwin_arm64_16: ""
artifacts:
    app:
        - Mesh.app
source:
    url: https://assets.me.sh/mesh-desktop/mac/Mesh-2.20.1-universal.dmg
    sha256: 66b00ae22df7c83db17969115d6f5f25d895a4faff161770e3f29c39df91117d
