name: mesh
version: 2.20.0
description: Private rolodex to remember people better
homepage: https://me.sh/
url:
  darwin_arm64: https://assets.me.sh/mesh-desktop/mac/Mesh-2.20.0-universal.dmg
  darwin_amd64: https://assets.me.sh/mesh-desktop/mac/Mesh-2.20.0-universal.dmg
sha256:
  darwin_arm64: c634363be4fc4a8b2bac531e199c7e6dfc181b6bc457a541cc1033f61193901b
  darwin_amd64: c634363be4fc4a8b2bac531e199c7e6dfc181b6bc457a541cc1033f61193901b
source:
  url: https://assets.me.sh/mesh-desktop/mac/Mesh-2.20.0-universal.dmg
  sha256: c634363be4fc4a8b2bac531e199c7e6dfc181b6bc457a541cc1033f61193901b
artifacts:
  app:
    - Mesh.app
