name: mesh
version: 2.20.0
description: Private rolodex to remember people better
homepage: https://me.sh/
license: ""
url:
    darwin_amd64: https://assets.me.sh/mesh-desktop/mac/Mesh-2.20.0-universal.dmg
    darwin_arm64: https://assets.me.sh/mesh-desktop/mac/Mesh-2.20.0-universal.dmg
sha256:
    darwin_amd64: c634363be4fc4a8b2bac531e199c7e6dfc181b6bc457a541cc1033f61193901b
    darwin_arm64: c634363be4fc4a8b2bac531e199c7e6dfc181b6bc457a541cc1033f61193901b
sha512:
    darwin_amd64: ""
    darwin_arm64: ""
artifacts:
    app:
        - Mesh.app
    pkg: []
    bin: []
source:
    url: https://assets.me.sh/mesh-desktop/mac/Mesh-2.20.0-universal.dmg
    sha256: c634363be4fc4a8b2bac531e199c7e6dfc181b6bc457a541cc1033f61193901b
    sha512: ""
